Molecule Density and ESP Calculation                                    
SP        RMP2-FC                                                     Aug-CC-pVTZ         
Number of atoms                            I                9
Info1-9                                    I   N=           9
          19          18           0           0           0         110
           1           2           1
Full Title                                 C   N=           3
Molecule Density and ESP Calculation
Route                                      C   N=           3
# MP2/aug-cc-pvtz SCF=(Tight,Direct)
Charge                                     I                0
Multiplicity                               I                1
Number of electrons                        I               32
Number of alpha electrons                  I               16
Number of beta electrons                   I               16
Number of basis functions                  I              299
Number of independent functions            I              299
Number of point charges in /Mol/           I                0
Number of translation vectors              I                0
Atomic numbers                             I   N=           9
           6           6           7           1           1           8
           1           1           1
Nuclear charges                            R   N=           9
  6.00000000E+00  6.00000000E+00  7.00000000E+00  1.00000000E+00  1.00000000E+00
  8.00000000E+00  1.00000000E+00  1.00000000E+00  1.00000000E+00
Current cartesian coordinates              R   N=          27
 -2.57948141E+00 -6.23755912E-01 -1.67330432E-02  8.38933809E-02  2.23962011E-01
 -1.83482447E-03  1.96178261E+00 -1.50648415E+00 -4.80829496E-02  1.66816646E+00
 -3.28174852E+00  4.40934993E-01  3.75717300E+00 -9.52377299E-01 -2.19039431E-01
  6.84303098E-01  2.45092043E+00  4.79415570E-02 -3.38962023E+00 -5.96337671E-01
  1.93054642E+00 -3.49878120E+00  7.44090414E-01 -1.35442105E+00 -2.77031297E+00
 -2.57683791E+00 -7.33565538E-01
Number of symbols in /Mol/                 I                0
Int Atom Types                             I   N=           9
           0           0           0           0           0           0
           0           0           0
Force Field                                I                0
Atom Types                                 C   N=           9
                                                            
                                                
MM charges                                 R   N=           9
  0.00000000E+00  0.00000000E+00  0.00000000E+00  0.00000000E+00  0.00000000E+00
  0.00000000E+00  0.00000000E+00  0.00000000E+00  0.00000000E+00
Integer atomic weights                     I   N=           9
          12          12          14           1           1          16
           1           1           1
Real atomic weights                        R   N=           9
  1.20000000E+01  1.20000000E+01  1.40030740E+01  1.00782504E+00  1.00782504E+00
  1.59949146E+01  1.00782504E+00  1.00782504E+00  1.00782504E+00
Atom fragment info                         I   N=           9
           0           0           0           0           0           0
           0           0           0
Atom residue num                           I   N=           9
           0           0           0           0           0           0
           0           0           0
Nuclear spins                              I   N=           9
           0           0           2           1           1           0
           1           1           1
Nuclear ZEff                               R   N=           9
 -3.60000000E+00 -3.60000000E+00 -4.55000000E+00 -1.00000000E+00 -1.00000000E+00
 -5.60000000E+00 -1.00000000E+00 -1.00000000E+00 -1.00000000E+00
Nuclear ZNuc                               R   N=           9
  6.00000000E+00  6.00000000E+00  7.00000000E+00  1.00000000E+00  1.00000000E+00
  8.00000000E+00  1.00000000E+00  1.00000000E+00  1.00000000E+00
Nuclear QMom                               R   N=           9
  0.00000000E+00  0.00000000E+00  2.04400000E+00  0.00000000E+00  0.00000000E+00
  0.00000000E+00  0.00000000E+00  0.00000000E+00  0.00000000E+00
Nuclear GFac                               R   N=           9
  0.00000000E+00  0.00000000E+00  4.03761000E-01  2.79284600E+00  2.79284600E+00
  0.00000000E+00  2.79284600E+00  2.79284600E+00  2.79284600E+00
MicOpt                                     I   N=           9
          -1          -1          -1          -1          -1          -1
          -1          -1          -1
Number of residues                         I                0
Number of secondary structures             I                0
SymInf integers                            I   N=          26
           1           1           1           1           1           0
           0           0           0           0           0           0
           0           0           0           0           0           0
           0           0           0           0           0           0
           0           0
RotTr to input orientation                 R   N=          12
 -1.02852411E-01 -5.68609561E-01  8.16152283E-01  7.12625856E-01  5.30313733E-01
  4.59273049E-01 -6.93963811E-01  6.28848560E-01  3.50661829E-01  3.90136944E+01
  3.85635791E+01  3.97499697E+00
Number of contracted shells                I              101
Number of primitive shells                 I              163
Pure/Cartesian d shells                    I                0
Pure/Cartesian f shells                    I                0
Highest angular momentum                   I                3
Largest degree of contraction              I                7
Shell types                                I   N=         101
           0           0           0           0           0           1
           1           1           1          -2          -2          -2
          -3          -3           0           0           0           0
           0           1           1           1           1          -2
          -2          -2          -3          -3           0           0
           0           0           0           1           1           1
           1          -2          -2          -2          -3          -3
           0           0           0           0           1           1
           1          -2          -2           0           0           0
           0           1           1           1          -2          -2
           0           0           0           0           0           1
           1           1           1          -2          -2          -2
          -3          -3           0           0           0           0
           1           1           1          -2          -2           0
           0           0           0           1           1           1
          -2          -2           0           0           0           0
           1           1           1          -2          -2
Number of primitives per shell             I   N=         101
           7           6           1           1           1           3
           1           1           1           1           1           1
           1           1           7           6           1           1
           1           3           1           1           1           1
           1           1           1           1           7           6
           1           1           1           3           1           1
           1           1           1           1           1           1
           3           1           1           1           1           1
           1           1           1           3           1           1
           1           1           1           1           1           1
           7           6           1           1           1           3
           1           1           1           1           1           1
           1           1           3           1           1           1
           1           1           1           1           1           3
           1           1           1           1           1           1
           1           1           3           1           1           1
           1           1           1           1           1
Shell to atom map                          I   N=         101
           1           1           1           1           1           1
           1           1           1           1           1           1
           1           1           2           2           2           2
           2           2           2           2           2           2
           2           2           2           2           3           3
           3           3           3           3           3           3
           3           3           3           3           3           3
           4           4           4           4           4           4
           4           4           4           5           5           5
           5           5           5           5           5           5
           6           6           6           6           6           6
           6           6           6           6           6           6
           6           6           7           7           7           7
           7           7           7           7           7           8
           8           8           8           8           8           8
           8           8           9           9           9           9
           9           9           9           9           9
Primitive exponents                        R   N=         163
  8.23600000E+03  1.23500000E+03  2.80800000E+02  7.92700000E+01  2.55900000E+01
  8.99700000E+00  3.31900000E+00  2.80800000E+02  7.92700000E+01  2.55900000E+01
  8.99700000E+00  3.31900000E+00  3.64300000E-01  9.05900000E-01  1.28500000E-01
  4.40200000E-02  1.87100000E+01  4.13300000E+00  1.20000000E+00  3.82700000E-01
  1.20900000E-01  3.56900000E-02  1.09700000E+00  3.18000000E-01  1.00000000E-01
  7.61000000E-01  2.68000000E-01  8.23600000E+03  1.23500000E+03  2.80800000E+02
  7.92700000E+01  2.55900000E+01  8.99700000E+00  3.31900000E+00  2.80800000E+02
  7.92700000E+01  2.55900000E+01  8.99700000E+00  3.31900000E+00  3.64300000E-01
  9.05900000E-01  1.28500000E-01  4.40200000E-02  1.87100000E+01  4.13300000E+00
  1.20000000E+00  3.82700000E-01  1.20900000E-01  3.56900000E-02  1.09700000E+00
  3.18000000E-01  1.00000000E-01  7.61000000E-01  2.68000000E-01  1.14200000E+04
  1.71200000E+03  3.89300000E+02  1.10000000E+02  3.55700000E+01  1.25400000E+01
  4.64400000E+00  3.89300000E+02  1.10000000E+02  3.55700000E+01  1.25400000E+01
  4.64400000E+00  5.11800000E-01  1.29300000E+00  1.78700000E-01  5.76000000E-02
  2.66300000E+01  5.94800000E+00  1.74200000E+00  5.55000000E-01  1.72500000E-01
  4.91000000E-02  1.65400000E+00  4.69000000E-01  1.51000000E-01  1.09300000E+00
  3.64000000E-01  3.38700000E+01  5.09500000E+00  1.15900000E+00  3.25800000E-01
  1.02700000E-01  2.52600000E-02  1.40700000E+00  3.88000000E-01  1.02000000E-01
  1.05700000E+00  2.47000000E-01  3.38700000E+01  5.09500000E+00  1.15900000E+00
  3.25800000E-01  1.02700000E-01  2.52600000E-02  1.40700000E+00  3.88000000E-01
  1.02000000E-01  1.05700000E+00  2.47000000E-01  1.53300000E+04  2.29900000E+03
  5.22400000E+02  1.47300000E+02  4.75500000E+01  1.67600000E+01  6.20700000E+00
  5.22400000E+02  1.47300000E+02  4.75500000E+01  1.67600000E+01  6.20700000E+00
  6.88200000E-01  1.75200000E+00  2.38400000E-01  7.37600000E-02  3.44600000E+01
  7.74900000E+00  2.28000000E+00  7.15600000E-01  2.14000000E-01  5.97400000E-02
  2.31400000E+00  6.45000000E-01  2.14000000E-01  1.42800000E+00  5.00000000E-01
  3.38700000E+01  5.09500000E+00  1.15900000E+00  3.25800000E-01  1.02700000E-01
  2.52600000E-02  1.40700000E+00  3.88000000E-01  1.02000000E-01  1.05700000E+00
  2.47000000E-01  3.38700000E+01  5.09500000E+00  1.15900000E+00  3.25800000E-01
  1.02700000E-01  2.52600000E-02  1.40700000E+00  3.88000000E-01  1.02000000E-01
  1.05700000E+00  2.47000000E-01  3.38700000E+01  5.09500000E+00  1.15900000E+00
  3.25800000E-01  1.02700000E-01  2.52600000E-02  1.40700000E+00  3.88000000E-01
  1.02000000E-01  1.05700000E+00  2.47000000E-01
Contraction coefficients                   R   N=         163
  5.41978320E-04  4.19287382E-03  2.15221621E-02  8.35343220E-02  2.39582846E-01
  4.42852842E-01  3.51799562E-01 -5.94922494E-05 -1.14815831E-03 -1.00191374E-02
 -6.12194923E-02 -1.73269854E-01  1.07291519E+00  1.00000000E+00  1.00000000E+00
  1.00000000E+00  3.94263872E-02  2.44088985E-01  8.15492009E-01  1.00000000E+00
  1.00000000E+00  1.00000000E+00  1.00000000E+00  1.00000000E+00  1.00000000E+00
  1.00000000E+00  1.00000000E+00  5.41978320E-04  4.19287382E-03  2.15221621E-02
  8.35343220E-02  2.39582846E-01  4.42852842E-01  3.51799562E-01 -5.94922494E-05
 -1.14815831E-03 -1.00191374E-02 -6.12194923E-02 -1.73269854E-01  1.07291519E+00
  1.00000000E+00  1.00000000E+00  1.00000000E+00  3.94263872E-02  2.44088985E-01
  8.15492009E-01  1.00000000E+00  1.00000000E+00  1.00000000E+00  1.00000000E+00
  1.00000000E+00  1.00000000E+00  1.00000000E+00  1.00000000E+00  5.34563860E-04
  4.13435660E-03  2.12335358E-02  8.25006224E-02  2.38138871E-01  4.42551547E-01
  3.53757422E-01 -4.89867350E-05 -1.19527323E-03 -1.03490714E-02 -6.48680190E-02
 -1.71552477E-01  1.07289568E+00  1.00000000E+00  1.00000000E+00  1.00000000E+00
  3.98072123E-02  2.49002660E-01  8.10479727E-01  1.00000000E+00  1.00000000E+00
  1.00000000E+00  1.00000000E+00  1.00000000E+00  1.00000000E+00  1.00000000E+00
  1.00000000E+00  2.54948632E-02  1.90362766E-01  8.52162022E-01  1.00000000E+00
  1.00000000E+00  1.00000000E+00  1.00000000E+00  1.00000000E+00  1.00000000E+00
  1.00000000E+00  1.00000000E+00  2.54948632E-02  1.90362766E-01  8.52162022E-01
  1.00000000E+00  1.00000000E+00  1.00000000E+00  1.00000000E+00  1.00000000E+00
  1.00000000E+00  1.00000000E+00  1.00000000E+00  5.19808943E-04  4.02025621E-03
  2.07128267E-02  8.10105536E-02  2.35962985E-01  4.42653446E-01  3.57064423E-01
 -4.42115008E-05 -1.22591041E-03 -1.05517725E-02 -6.74452633E-02 -1.71198607E-01
  1.07329856E+00  1.00000000E+00  1.00000000E+00  1.00000000E+00  4.11634896E-02
  2.57762836E-01  8.02419274E-01  1.00000000E+00  1.00000000E+00  1.00000000E+00
  1.00000000E+00  1.00000000E+00  1.00000000E+00  1.00000000E+00  1.00000000E+00
  2.54948632E-02  1.90362766E-01  8.52162022E-01  1.00000000E+00  1.00000000E+00
  1.00000000E+00  1.00000000E+00  1.00000000E+00  1.00000000E+00  1.00000000E+00
  1.00000000E+00  2.54948632E-02  1.90362766E-01  8.52162022E-01  1.00000000E+00
  1.00000000E+00  1.00000000E+00  1.00000000E+00  1.00000000E+00  1.00000000E+00
  1.00000000E+00  1.00000000E+00  2.54948632E-02  1.90362766E-01  8.52162022E-01
  1.00000000E+00  1.00000000E+00  1.00000000E+00  1.00000000E+00  1.00000000E+00
  1.00000000E+00  1.00000000E+00  1.00000000E+00
Coordinates of each shell                  R   N=         303
 -2.57948141E+00 -6.23755912E-01 -1.67330432E-02 -2.57948141E+00 -6.23755912E-01
 -1.67330432E-02 -2.57948141E+00 -6.23755912E-01 -1.67330432E-02 -2.57948141E+00
 -6.23755912E-01 -1.67330432E-02 -2.57948141E+00 -6.23755912E-01 -1.67330432E-02
 -2.57948141E+00 -6.23755912E-01 -1.67330432E-02 -2.57948141E+00 -6.23755912E-01
 -1.67330432E-02 -2.57948141E+00 -6.23755912E-01 -1.67330432E-02 -2.57948141E+00
 -6.23755912E-01 -1.67330432E-02 -2.57948141E+00 -6.23755912E-01 -1.67330432E-02
 -2.57948141E+00 -6.23755912E-01 -1.67330432E-02 -2.57948141E+00 -6.23755912E-01
 -1.67330432E-02 -2.57948141E+00 -6.23755912E-01 -1.67330432E-02 -2.57948141E+00
 -6.23755912E-01 -1.67330432E-02  8.38933809E-02  2.23962011E-01 -1.83482447E-03
  8.38933809E-02  2.23962011E-01 -1.83482447E-03  8.38933809E-02  2.23962011E-01
 -1.83482447E-03  8.38933809E-02  2.23962011E-01 -1.83482447E-03  8.38933809E-02
  2.23962011E-01 -1.83482447E-03  8.38933809E-02  2.23962011E-01 -1.83482447E-03
  8.38933809E-02  2.23962011E-01 -1.83482447E-03  8.38933809E-02  2.23962011E-01
 -1.83482447E-03  8.38933809E-02  2.23962011E-01 -1.83482447E-03  8.38933809E-02
  2.23962011E-01 -1.83482447E-03  8.38933809E-02  2.23962011E-01 -1.83482447E-03
  8.38933809E-02  2.23962011E-01 -1.83482447E-03  8.38933809E-02  2.23962011E-01
 -1.83482447E-03  8.38933809E-02  2.23962011E-01 -1.83482447E-03  1.96178261E+00
 -1.50648415E+00 -4.80829496E-02  1.96178261E+00 -1.50648415E+00 -4.80829496E-02
  1.96178261E+00 -1.50648415E+00 -4.80829496E-02  1.96178261E+00 -1.50648415E+00
 -4.80829496E-02  1.96178261E+00 -1.50648415E+00 -4.80829496E-02  1.96178261E+00
 -1.50648415E+00 -4.80829496E-02  1.96178261E+00 -1.50648415E+00 -4.80829496E-02
  1.96178261E+00 -1.50648415E+00 -4.80829496E-02  1.96178261E+00 -1.50648415E+00
 -4.80829496E-02  1.96178261E+00 -1.50648415E+00 -4.80829496E-02  1.96178261E+00
 -1.50648415E+00 -4.80829496E-02  1.96178261E+00 -1.50648415E+00 -4.80829496E-02
  1.96178261E+00 -1.50648415E+00 -4.80829496E-02  1.96178261E+00 -1.50648415E+00
 -4.80829496E-02  1.66816646E+00 -3.28174852E+00  4.40934993E-01  1.66816646E+00
 -3.28174852E+00  4.40934993E-01  1.66816646E+00 -3.28174852E+00  4.40934993E-01
  1.66816646E+00 -3.28174852E+00  4.40934993E-01  1.66816646E+00 -3.28174852E+00
  4.40934993E-01  1.66816646E+00 -3.28174852E+00  4.40934993E-01  1.66816646E+00
 -3.28174852E+00  4.40934993E-01  1.66816646E+00 -3.28174852E+00  4.40934993E-01
  1.66816646E+00 -3.28174852E+00  4.40934993E-01  3.75717300E+00 -9.52377299E-01
 -2.19039431E-01  3.75717300E+00 -9.52377299E-01 -2.19039431E-01  3.75717300E+00
 -9.52377299E-01 -2.19039431E-01  3.75717300E+00 -9.52377299E-01 -2.19039431E-01
  3.75717300E+00 -9.52377299E-01 -2.19039431E-01  3.75717300E+00 -9.52377299E-01
 -2.19039431E-01  3.75717300E+00 -9.52377299E-01 -2.19039431E-01  3.75717300E+00
 -9.52377299E-01 -2.19039431E-01  3.75717300E+00 -9.52377299E-01 -2.19039431E-01
  6.84303098E-01  2.45092043E+00  4.79415570E-02  6.84303098E-01  2.45092043E+00
  4.79415570E-02  6.84303098E-01  2.45092043E+00  4.79415570E-02  6.84303098E-01
  2.45092043E+00  4.79415570E-02  6.84303098E-01  2.45092043E+00  4.79415570E-02
  6.84303098E-01  2.45092043E+00  4.79415570E-02  6.84303098E-01  2.45092043E+00
  4.79415570E-02  6.84303098E-01  2.45092043E+00  4.79415570E-02  6.84303098E-01
  2.45092043E+00  4.79415570E-02  6.84303098E-01  2.45092043E+00  4.79415570E-02
  6.84303098E-01  2.45092043E+00  4.79415570E-02  6.84303098E-01  2.45092043E+00
  4.79415570E-02  6.84303098E-01  2.45092043E+00  4.79415570E-02  6.84303098E-01
  2.45092043E+00  4.79415570E-02 -3.38962023E+00 -5.96337671E-01  1.93054642E+00
 -3.38962023E+00 -5.96337671E-01  1.93054642E+00 -3.38962023E+00 -5.96337671E-01
  1.93054642E+00 -3.38962023E+00 -5.96337671E-01  1.93054642E+00 -3.38962023E+00
 -5.96337671E-01  1.93054642E+00 -3.38962023E+00 -5.96337671E-01  1.93054642E+00
 -3.38962023E+00 -5.96337671E-01  1.93054642E+00 -3.38962023E+00 -5.96337671E-01
  1.93054642E+00 -3.38962023E+00 -5.96337671E-01  1.93054642E+00 -3.49878120E+00
  7.44090414E-01 -1.35442105E+00 -3.49878120E+00  7.44090414E-01 -1.35442105E+00
 -3.49878120E+00  7.44090414E-01 -1.35442105E+00 -3.49878120E+00  7.44090414E-01
 -1.35442105E+00 -3.49878120E+00  7.44090414E-01 -1.35442105E+00 -3.49878120E+00
  7.44090414E-01 -1.35442105E+00 -3.49878120E+00  7.44090414E-01 -1.35442105E+00
 -3.49878120E+00  7.44090414E-01 -1.35442105E+00 -3.49878120E+00  7.44090414E-01
 -1.35442105E+00 -2.77031297E+00 -2.57683791E+00 -7.33565538E-01 -2.77031297E+00
 -2.57683791E+00 -7.33565538E-01 -2.77031297E+00 -2.57683791E+00 -7.33565538E-01
 -2.77031297E+00 -2.57683791E+00 -7.33565538E-01 -2.77031297E+00 -2.57683791E+00
 -7.33565538E-01 -2.77031297E+00 -2.57683791E+00 -7.33565538E-01 -2.77031297E+00
 -2.57683791E+00 -7.33565538E-01 -2.77031297E+00 -2.57683791E+00 -7.33565538E-01
 -2.77031297E+00 -2.57683791E+00 -7.33565538E-01
Num ILSW                                   I              100
ILSW                                       I   N=         100
           0           0           0           0           2           0
           0           0           0           0           0          -1
           5           0           0           0           0           0
           0           0           1           0           0           0
           1           0           0           0           0           0
           0           0      100000           0          -1           0
           0           0           0           0           0           0
           0           0           0           1           0           0
           0 -2000000000           1           0           0           0
           0           0           4          52           0           0
           0           0           0           0           0           0
           0           0           0           0           0           1
           0           0           0           0           0           0
           0           0           0           0           0           0
           0           0           0           0           0           0
           0           0           0           0           0           0
           0           0           0           0
Num RLSW                                   I               52
RLSW                                       R   N=          52
  1.00000000E+00  1.00000000E+00  1.00000000E+00  1.00000000E+00  1.00000000E+00
  0.00000000E+00  0.00000000E+00  1.00000000E+00  0.00000000E+00  0.00000000E+00
  0.00000000E+00  0.00000000E+00  1.00000000E+00  0.00000000E+00  0.00000000E+00
  0.00000000E+00  0.00000000E+00  1.00000000E+00  0.00000000E+00  0.00000000E+00
  0.00000000E+00  0.00000000E+00  1.00000000E+00  0.00000000E+00  0.00000000E+00
  0.00000000E+00  0.00000000E+00  1.00000000E+00  0.00000000E+00  0.00000000E+00
  0.00000000E+00  0.00000000E+00  1.00000000E+00  0.00000000E+00  0.00000000E+00
  0.00000000E+00  0.00000000E+00  0.00000000E+00  1.00000000E+00  1.00000000E+00
  0.00000000E+00  1.00000000E+00  0.00000000E+00  0.00000000E+00  0.00000000E+00
  0.00000000E+00  0.00000000E+00  0.00000000E+00  0.00000000E+00  0.00000000E+00
  0.00000000E+00  0.00000000E+00
MxBond                                     I                4
NBond                                      I   N=           9
           4           3           3           1           1           1
           1           1           1
IBond                                      I   N=          36
           2           7           8           9           1           3
           6           0           2           4           5           0
           3           0           0           0           3           0
           0           0           2           0           0           0
           1           0           0           0           1           0
           0           0           1           0           0           0
RBond                                      R   N=          36
  1.00000000E+00  1.00000000E+00  1.00000000E+00  1.00000000E+00  1.00000000E+00
  1.50000000E+00  2.00000000E+00  0.00000000E+00  1.50000000E+00  1.00000000E+00
  1.00000000E+00  0.00000000E+00  1.00000000E+00  0.00000000E+00  0.00000000E+00
  0.00000000E+00  1.00000000E+00  0.00000000E+00  0.00000000E+00  0.00000000E+00
  2.00000000E+00  0.00000000E+00  0.00000000E+00  0.00000000E+00  1.00000000E+00
  0.00000000E+00  0.00000000E+00  0.00000000E+00  1.00000000E+00  0.00000000E+00
  0.00000000E+00  0.00000000E+00  1.00000000E+00  0.00000000E+00  0.00000000E+00
  0.00000000E+00
Virial Ratio                               R      2.001327796940408E+00
SCF Energy                                 R     -2.080560262222896E+02
MP2 Energy                                 R     -2.088467997108853E+02
Total Energy                               R     -2.088467997108853E+02
Post-SCF wavefunction norm                 R      1.104927893820464E+00
RMS Density                                R      9.624133377954057E-09
Job Status                                 I                1
Nuclear derivative order                   I                0
External E-field                           R   N=          35
  0.00000000E+00  0.00000000E+00  0.00000000E+00  0.00000000E+00  0.00000000E+00
  0.00000000E+00  0.00000000E+00  0.00000000E+00  0.00000000E+00  0.00000000E+00
  0.00000000E+00  0.00000000E+00  0.00000000E+00  0.00000000E+00  0.00000000E+00
  0.00000000E+00  0.00000000E+00  0.00000000E+00  0.00000000E+00  0.00000000E+00
  0.00000000E+00  0.00000000E+00  0.00000000E+00  0.00000000E+00  0.00000000E+00
  0.00000000E+00  0.00000000E+00  0.00000000E+00  0.00000000E+00  0.00000000E+00
  0.00000000E+00  0.00000000E+00  0.00000000E+00  0.00000000E+00  0.00000000E+00
IOpCl                                      I                0
IROHF                                      I                0
Alpha Orbital Energies                     R   N=         299
 -2.05103737E+01 -1.55799486E+01 -1.13482057E+01 -1.12479069E+01 -1.37972819E+00
 -1.21194683E+00 -1.01161315E+00 -8.01315702E-01 -7.25517551E-01 -6.68580578E-01
 -6.21850766E-01 -5.81972778E-01 -5.54107339E-01 -5.22525128E-01 -4.25467268E-01
 -4.09846592E-01  2.20023566E-02  3.64584119E-02  4.42412898E-02  4.63757768E-02
  6.24716555E-02  8.42968938E-02  1.03201348E-01  1.06757718E-01  1.15098871E-01
  1.26424777E-01  1.32299218E-01  1.39591033E-01  1.48117235E-01  1.51947670E-01
  1.65910561E-01  1.69537635E-01  1.81624107E-01  2.13257570E-01  2.21285729E-01
  2.34727358E-01  2.43218295E-01  2.53838652E-01  2.58140502E-01  2.73128894E-01
  2.94435519E-01  2.97580656E-01  3.11839419E-01  3.19117176E-01  3.33841198E-01
  3.45030602E-01  3.48499968E-01  3.50746928E-01  3.57845413E-01  3.71380910E-01
  3.76030611E-01  3.79939478E-01  4.04350278E-01  4.07501099E-01  4.10916359E-01
  4.14626478E-01  4.25085781E-01  4.43857450E-01  4.66707652E-01  4.70743782E-01
  4.79923257E-01  4.87035133E-01  4.98222611E-01  5.04428926E-01  5.21374006E-01
  5.33112449E-01  5.46186633E-01  5.67527127E-01  5.91798096E-01  6.10110857E-01
  6.26902631E-01  6.32496702E-01  6.52421500E-01  6.71631035E-01  6.83721854E-01
  7.24292817E-01  7.33203870E-01  7.67817275E-01  7.71323744E-01  7.93466267E-01
  8.00175036E-01  8.14527575E-01  8.31902385E-01  8.35503089E-01  8.62567841E-01
  8.69283258E-01  8.76117846E-01  8.85677016E-01  9.01987512E-01  9.08629718E-01
  9.11553382E-01  9.31977127E-01  9.45539726E-01  9.60789338E-01  9.82434316E-01
  9.97973836E-01  1.01220860E+00  1.01590693E+00  1.03336169E+00  1.04127956E+00
  1.04578732E+00  1.05758014E+00  1.07065111E+00  1.07918915E+00  1.08594801E+00
  1.09204973E+00  1.11361241E+00  1.11661842E+00  1.12645074E+00  1.16209016E+00
  1.17147103E+00  1.19653289E+00  1.20190088E+00  1.21309999E+00  1.22458444E+00
  1.24027090E+00  1.25579572E+00  1.26402807E+00  1.27271446E+00  1.29954231E+00
  1.31890695E+00  1.32875967E+00  1.35091176E+00  1.37391303E+00  1.40155213E+00
  1.40533686E+00  1.42210810E+00  1.44204636E+00  1.48537642E+00  1.49629464E+00
  1.50963529E+00  1.53653732E+00  1.54128230E+00  1.56522780E+00  1.58192027E+00
  1.61517459E+00  1.62175927E+00  1.64283066E+00  1.65510308E+00  1.68772092E+00
  1.69426594E+00  1.71324709E+00  1.72853263E+00  1.76033735E+00  1.79257750E+00
  1.80023451E+00  1.82804080E+00  1.83787979E+00  1.86143579E+00  1.89034149E+00
  1.90977591E+00  1.93545631E+00  1.99330077E+00  2.01561005E+00  2.06736100E+00
  2.08070322E+00  2.11612032E+00  2.12909247E+00  2.14493323E+00  2.17995355E+00
  2.19083841E+00  2.21722478E+00  2.22930226E+00  2.24742844E+00  2.25645121E+00
  2.32046380E+00  2.33804530E+00  2.36437019E+00  2.38454234E+00  2.44551191E+00
  2.45995303E+00  2.48947927E+00  2.52229538E+00  2.52720304E+00  2.55920151E+00
  2.59079071E+00  2.61529845E+00  2.67225594E+00  2.69939506E+00  2.73135121E+00
  2.74976776E+00  2.79043005E+00  2.82680665E+00  2.91948662E+00  2.94007808E+00
  2.96090309E+00  3.04566764E+00  3.07538269E+00  3.17221832E+00  3.21406223E+00
  3.23371384E+00  3.28175132E+00  3.37866504E+00  3.41618827E+00  3.45804530E+00
  3.50975523E+00  3.53443721E+00  3.54606608E+00  3.60203865E+00  3.61550119E+00
  3.63537669E+00  3.70267707E+00  3.74052148E+00  3.78877441E+00  3.81097180E+00
  3.83124070E+00  3.86339101E+00  3.89905698E+00  3.91069213E+00  3.91971288E+00
  3.92629771E+00  3.98359965E+00  3.99138504E+00  4.01773621E+00  4.06624232E+00
  4.08282431E+00  4.12202458E+00  4.15016189E+00  4.19742497E+00  4.22203444E+00
  4.22959198E+00  4.23881112E+00  4.30282294E+00  4.31781411E+00  4.35165064E+00
  4.36803181E+00  4.40038098E+00  4.43101673E+00  4.45112705E+00  4.46858727E+00
  4.48367926E+00  4.50416663E+00  4.59835757E+00  4.62846502E+00  4.67151321E+00
  4.71032044E+00  4.71796881E+00  4.73385756E+00  4.78069104E+00  4.80295535E+00
  4.85141753E+00  4.87042987E+00  4.88741447E+00  4.96209420E+00  4.98055330E+00
  5.03515782E+00  5.05243871E+00  5.05654228E+00  5.08030266E+00  5.11220142E+00
  5.18814689E+00  5.19075097E+00  5.26981661E+00  5.31309150E+00  5.32903279E+00
  5.37828036E+00  5.38674879E+00  5.47663965E+00  5.49844081E+00  5.54539041E+00
  5.57459467E+00  5.60533438E+00  5.63926453E+00  5.67103044E+00  5.76903191E+00
  5.80567111E+00  5.87872823E+00  5.92041293E+00  5.97222006E+00  6.04253378E+00
  6.11511485E+00  6.15324874E+00  6.25886893E+00  6.28332518E+00  6.31702255E+00
  6.42243588E+00  6.62539767E+00  6.65608644E+00  6.70366313E+00  6.71980283E+00
  6.76784328E+00  6.86303339E+00  6.99375207E+00  7.01711801E+00  7.12778906E+00
  7.24133306E+00  7.36818752E+00  7.41922288E+00  7.44287488E+00  7.59408964E+00
  7.68569934E+00  7.74943618E+00  7.78748985E+00  7.90500117E+00  8.00019242E+00
  1.55954513E+01  1.68378246E+01  1.79219735E+01  1.93950791E+01
Alpha MO coefficients                      R   N=       89401