 Entering Gaussian System, Link 0=/cluster/software/gaussian/g16/g16
 Input=/pchem-data/meuwly/boittier/home/acem/test-gaussian.com
 Output=/scratch/boittier/test-gaussian/test-gaussian.out
 Initial command:
 /cluster/software/gaussian/g16/l1.exe "/scratch/boittier/test-gaussian/Gau-193859.inp" -scrdir="/scratch/boittier/test-gaussian/"
 Entering Link 1 = /cluster/software/gaussian/g16/l1.exe PID=    193861.
  
 Copyright (c) 1988-2019, Gaussian, Inc.  All Rights Reserved.
  
 This is part of the Gaussian(R) 16 program.  It is based on
 the Gaussian(R) 09 system (copyright 2009, Gaussian, Inc.),
 the Gaussian(R) 03 system (copyright 2003, Gaussian, Inc.),
 the Gaussian(R) 98 system (copyright 1998, Gaussian, Inc.),
 the Gaussian(R) 94 system (copyright 1995, Gaussian, Inc.),
 the Gaussian 92(TM) system (copyright 1992, Gaussian, Inc.),
 the Gaussian 90(TM) system (copyright 1990, Gaussian, Inc.),
 the Gaussian 88(TM) system (copyright 1988, Gaussian, Inc.),
 the Gaussian 86(TM) system (copyright 1986, Carnegie Mellon
 University), and the Gaussian 82(TM) system (copyright 1983,
 Carnegie Mellon University). Gaussian is a federally registered
 trademark of Gaussian, Inc.
  
 This software contains proprietary and confidential information,
 including trade secrets, belonging to Gaussian, Inc.
  
 This software is provided under written license and may be
 used, copied, transmitted, or stored only in accord with that
 written license.
  
 The following legend is applicable only to US Government
 contracts under FAR:
  
                    RESTRICTED RIGHTS LEGEND
  
 Use, reproduction and disclosure by the US Government is
 subject to restrictions as set forth in subparagraphs (a)
 and (c) of the Commercial Computer Software - Restricted
 Rights clause in FAR 52.227-19.
  
 Gaussian, Inc.
 340 Quinnipiac St., Bldg. 40, Wallingford CT 06492
  
  
 ---------------------------------------------------------------
 Warning -- This program may not be used in any manner that
 competes with the business of Gaussian, Inc. or will provide
 assistance to any competitor of Gaussian, Inc.  The licensee
 of this program is prohibited from giving any competitor of
 Gaussian, Inc. access to this program.  By using this program,
 the user acknowledges that Gaussian, Inc. is engaged in the
 business of creating and licensing software in the field of
 computational chemistry and represents and warrants to the
 licensee that it is not a competitor of Gaussian, Inc. and that
 it will not use this program in any manner prohibited above.
 ---------------------------------------------------------------
  

 Cite this work as:
 Gaussian 16, Revision C.01,
 M. J. Frisch, G. W. Trucks, H. B. Schlegel, G. E. Scuseria, 
 M. A. Robb, J. R. Cheeseman, G. Scalmani, V. Barone, 
 G. A. Petersson, H. Nakatsuji, X. Li, M. Caricato, A. V. Marenich, 
 J. Bloino, B. G. Janesko, R. Gomperts, B. Mennucci, H. P. Hratchian, 
 J. V. Ortiz, A. F. Izmaylov, J. L. Sonnenberg, D. Williams-Young, 
 F. Ding, F. Lipparini, F. Egidi, J. Goings, B. Peng, A. Petrone, 
 T. Henderson, D. Ranasinghe, V. G. Zakrzewski, J. Gao, N. Rega, 
 G. Zheng, W. Liang, M. Hada, M. Ehara, K. Toyota, R. Fukuda, 
 J. Hasegawa, M. Ishida, T. Nakajima, Y. Honda, O. Kitao, H. Nakai, 
 T. Vreven, K. Throssell, J. A. Montgomery, Jr., J. E. Peralta, 
 F. Ogliaro, M. J. Bearpark, J. J. Heyd, E. N. Brothers, K. N. Kudin, 
 V. N. Staroverov, T. A. Keith, R. Kobayashi, J. Normand, 
 K. Raghavachari, A. P. Rendell, J. C. Burant, S. S. Iyengar, 
 J. Tomasi, M. Cossi, J. M. Millam, M. Klene, C. Adamo, R. Cammi, 
 J. W. Ochterski, R. L. Martin, K. Morokuma, O. Farkas, 
 J. B. Foresman, and D. J. Fox, Gaussian, Inc., Wallingford CT, 2019.
 
 ******************************************
 Gaussian 16:  ES64L-G16RevC.01  3-Jul-2019
                 5-Nov-2024 
 ******************************************
 %Mem=2GB
 %NProcShared=1
 Will use up to    1 processors via shared memory.
 %chk=test.chk
 ------------------------------------
 # MP2/aug-cc-pvtz SCF=(Tight,Direct)
 ------------------------------------
 1/38=1,172=1/1;
 2/12=2,17=6,18=5,40=1/2;
 3/5=16,6=1,7=10,11=9,25=1,30=1/1,2,3;
 4//1;
 5/5=2,32=2,38=5/2;
 8/10=1/1;
 9/16=-3/6;
 6/7=2,8=2,9=2,10=2/1;
 99/5=1,9=1/99;
 ------------------------------------
 Molecule Density and ESP Calculation
 ------------------------------------
 Symbolic Z-matrix:
 Charge =  0 Multiplicity = 1
 C                     20.55647   21.00251   0.83473 
 C                     20.72572   20.44396   2.1938 
 N                     19.98794   19.37791   2.5757 
 H                     19.15488   19.1308   2.10818 
 H                     20.16196   18.9363   3.45405 
 O                     21.51456   20.90482   3.00358 
 H                     19.89581   21.90197   0.85284 
 H                     21.61357   21.21783   0.5219 
 H                     20.09359   20.27329   0.14462 
 
                          Input orientation:                          
 ---------------------------------------------------------------------
 Center     Atomic      Atomic             Coordinates (Angstroms)
 Number     Number       Type             X           Y           Z
 ---------------------------------------------------------------------
      1          6           0       20.556475   21.002508    0.834727
      2          6           0       20.725723   20.443964    2.193801
      3          7           0       19.987938   19.377911    2.575697
      4          1           0       19.154875   19.130798    2.108176
      5          1           0       20.161957   18.936296    3.454052
      6          8           0       21.514563   20.904819    3.003581
      7          1           0       19.895809   21.901970    0.852842
      8          1           0       21.613571   21.217834    0.521904
      9          1           0       20.093586   20.273293    0.144621
 ---------------------------------------------------------------------
                    Distance matrix (angstroms):
                    1          2          3          4          5
     1  C    0.000000
     2  C    1.479087   0.000000
     3  N    2.448168   1.351533   0.000000
     4  H    2.662603   2.049219   0.986729   0.000000
     5  H    3.359426   2.044291   0.998406   1.692166   0.000000
     6  O    2.373058   1.220819   2.201163   3.084968   2.430545
     7  H    1.116172   2.147722   3.057383   3.131172   3.953777
     8  H    1.123243   2.045089   3.200948   3.594046   3.988746
     9  H    1.105562   2.151247   2.592875   2.458052   3.569954
                    6          7          8          9
     6  O    0.000000
     7  H    2.870601   0.000000
     8  H    2.503298   1.878369   0.000000
     9  H    3.254482   1.786976   1.828894   0.000000
 Stoichiometry    C2H5NO
 Framework group  C1[X(C2H5NO)]
 Deg. of freedom    21
 Full point group                 C1      NOp   1
 Largest Abelian subgroup         C1      NOp   1
 Largest concise Abelian subgroup C1      NOp   1
                         Standard orientation:                         
 ---------------------------------------------------------------------
 Center     Atomic      Atomic             Coordinates (Angstroms)
 Number     Number       Type             X           Y           Z
 ---------------------------------------------------------------------
      1          6           0       -1.365003   -0.330077   -0.008855
      2          6           0        0.044394    0.118516   -0.000971
      3          7           0        1.038131   -0.797197   -0.025444
      4          1           0        0.882756   -1.736627    0.233333
      5          1           0        1.988210   -0.503976   -0.115911
      6          8           0        0.362118    1.296971    0.025370
      7          1           0       -1.793710   -0.315568    1.021601
      8          1           0       -1.851475    0.393756   -0.716729
      9          1           0       -1.465986   -1.363604   -0.388186
 ---------------------------------------------------------------------
 Rotational constants (GHZ):          11.4128427           9.1962605           5.2850114
 Standard basis: Aug-CC-pVTZ (5D, 7F)
 There are   345 symmetry adapted cartesian basis functions of A   symmetry.
 There are   299 symmetry adapted basis functions of A   symmetry.
   299 basis functions,   423 primitive gaussians,   345 cartesian basis functions
    16 alpha electrons       16 beta electrons
       nuclear repulsion energy       122.6341523600 Hartrees.
 NAtoms=    9 NActive=    9 NUniq=    9 SFac= 1.00D+00 NAtFMM=   60 NAOKFM=F Big=F
 Integral buffers will be    131072 words long.
 Raffenetti 1 integral format.
 Two-electron integral symmetry is turned on.
 One-electron integrals computed using PRISM.
 NBasis=   299 RedAO= T EigKep=  1.68D-05  NBF=   299
 NBsUse=   299 1.00D-06 EigRej= -1.00D+00 NBFU=   299
 ExpMin= 2.53D-02 ExpMax= 1.53D+04 ExpMxC= 5.22D+02 IAcc=3 IRadAn=         5 AccDes= 0.00D+00
 Harris functional with IExCor=  205 and IRadAn=       5 diagonalized for initial guess.
 HarFok:  IExCor=  205 AccDes= 0.00D+00 IRadAn=         5 IDoV= 1 UseB2=F ITyADJ=14
 ICtDFT=  3500011 ScaDFX=  1.000000  1.000000  1.000000  1.000000
 FoFCou: FMM=F IPFlag=           0 FMFlag=      100000 FMFlg1=           0
         NFxFlg=           0 DoJE=T BraDBF=F KetDBF=T FulRan=T
         wScrn=  0.000000 ICntrl=       500 IOpCl=  0 I1Cent=   200000004 NGrid=           0
         NMat0=    1 NMatS0=      1 NMatT0=    0 NMatD0=    1 NMtDS0=    0 NMtDT0=    0
 Petite list used in FoFCou.
 Requested convergence on RMS density matrix=1.00D-08 within 128 cycles.
 Requested convergence on MAX density matrix=1.00D-06.
 Requested convergence on             energy=1.00D-06.
 No special actions if energy rises.
 SCF Done:  E(RHF) =  -208.056026222     A.U. after   12 cycles
            NFock= 12  Conv=0.96D-08     -V/T= 2.0013
 ExpMin= 2.53D-02 ExpMax= 1.53D+04 ExpMxC= 5.22D+02 IAcc=3 IRadAn=         5 AccDes= 0.00D+00
 HarFok:  IExCor=  205 AccDes= 0.00D+00 IRadAn=         5 IDoV=-2 UseB2=F ITyADJ=14
 ICtDFT= 12500011 ScaDFX=  1.000000  1.000000  1.000000  1.000000
 Range of M.O.s used for correlation:     5   299
 NBasis=   299 NAE=    16 NBE=    16 NFC=     4 NFV=     0
 NROrb=    295 NOA=    12 NOB=    12 NVA=   283 NVB=   283

 **** Warning!!: The largest alpha MO coefficient is  0.40378303D+02

 Fully direct method using O(OVN) memory.
 JobTyp=1 Pass  1:  I=   1 to  12 NPSUse=  1 ParTrn=F ParDer=F DoDerP=F.
 Spin components of T(2) and E(2):
     alpha-alpha T2 =       0.2848752857D-01 E2=     -0.9656419749D-01
     alpha-beta  T2 =       0.1638905934D+00 E2=     -0.5976450936D+00
     beta-beta   T2 =       0.2848752857D-01 E2=     -0.9656419749D-01
 ANorm=    0.1104927894D+01
 E2 =    -0.7907734886D+00 EUMP2 =    -0.20884679971089D+03

 **********************************************************************

            Population analysis using the SCF Density.

 **********************************************************************

 Orbital symmetries:
       Occupied  (A) (A) (A) (A) (A) (A) (A) (A) (A) (A) (A) (A)
                 (A) (A) (A) (A)
       Virtual   (A) (A) (A) (A) (A) (A) (A) (A) (A) (A) (A) (A)
                 (A) (A) (A) (A) (A) (A) (A) (A) (A) (A) (A) (A)
                 (A) (A) (A) (A) (A) (A) (A) (A) (A) (A) (A) (A)
                 (A) (A) (A) (A) (A) (A) (A) (A) (A) (A) (A) (A)
                 (A) (A) (A) (A) (A) (A) (A) (A) (A) (A) (A) (A)
                 (A) (A) (A) (A) (A) (A) (A) (A) (A) (A) (A) (A)
                 (A) (A) (A) (A) (A) (A) (A) (A) (A) (A) (A) (A)
                 (A) (A) (A) (A) (A) (A) (A) (A) (A) (A) (A) (A)
                 (A) (A) (A) (A) (A) (A) (A) (A) (A) (A) (A) (A)
                 (A) (A) (A) (A) (A) (A) (A) (A) (A) (A) (A) (A)
                 (A) (A) (A) (A) (A) (A) (A) (A) (A) (A) (A) (A)
                 (A) (A) (A) (A) (A) (A) (A) (A) (A) (A) (A) (A)
                 (A) (A) (A) (A) (A) (A) (A) (A) (A) (A) (A) (A)
                 (A) (A) (A) (A) (A) (A) (A) (A) (A) (A) (A) (A)
                 (A) (A) (A) (A) (A) (A) (A) (A) (A) (A) (A) (A)
                 (A) (A) (A) (A) (A) (A) (A) (A) (A) (A) (A) (A)
                 (A) (A) (A) (A) (A) (A) (A) (A) (A) (A) (A) (A)
                 (A) (A) (A) (A) (A) (A) (A) (A) (A) (A) (A) (A)
                 (A) (A) (A) (A) (A) (A) (A) (A) (A) (A) (A) (A)
                 (A) (A) (A) (A) (A) (A) (A) (A) (A) (A) (A) (A)
                 (A) (A) (A) (A) (A) (A) (A) (A) (A) (A) (A) (A)
                 (A) (A) (A) (A) (A) (A) (A) (A) (A) (A) (A) (A)
                 (A) (A) (A) (A) (A) (A) (A) (A) (A) (A) (A) (A)
                 (A) (A) (A) (A) (A) (A) (A)
 The electronic state is 1-A.
 Alpha  occ. eigenvalues --  -20.51037 -15.57995 -11.34821 -11.24791  -1.37973
 Alpha  occ. eigenvalues --   -1.21195  -1.01161  -0.80132  -0.72552  -0.66858
 Alpha  occ. eigenvalues --   -0.62185  -0.58197  -0.55411  -0.52253  -0.42547
 Alpha  occ. eigenvalues --   -0.40985
 Alpha virt. eigenvalues --    0.02200   0.03646   0.04424   0.04638   0.06247
 Alpha virt. eigenvalues --    0.08430   0.10320   0.10676   0.11510   0.12642
 Alpha virt. eigenvalues --    0.13230   0.13959   0.14812   0.15195   0.16591
 Alpha virt. eigenvalues --    0.16954   0.18162   0.21326   0.22129   0.23473
 Alpha virt. eigenvalues --    0.24322   0.25384   0.25814   0.27313   0.29444
 Alpha virt. eigenvalues --    0.29758   0.31184   0.31912   0.33384   0.34503
 Alpha virt. eigenvalues --    0.34850   0.35075   0.35785   0.37138   0.37603
 Alpha virt. eigenvalues --    0.37994   0.40435   0.40750   0.41092   0.41463
 Alpha virt. eigenvalues --    0.42509   0.44386   0.46671   0.47074   0.47992
 Alpha virt. eigenvalues --    0.48704   0.49822   0.50443   0.52137   0.53311
 Alpha virt. eigenvalues --    0.54619   0.56753   0.59180   0.61011   0.62690
 Alpha virt. eigenvalues --    0.63250   0.65242   0.67163   0.68372   0.72429
 Alpha virt. eigenvalues --    0.73320   0.76782   0.77132   0.79347   0.80018
 Alpha virt. eigenvalues --    0.81453   0.83190   0.83550   0.86257   0.86928
 Alpha virt. eigenvalues --    0.87612   0.88568   0.90199   0.90863   0.91155
 Alpha virt. eigenvalues --    0.93198   0.94554   0.96079   0.98243   0.99797
 Alpha virt. eigenvalues --    1.01221   1.01591   1.03336   1.04128   1.04579
 Alpha virt. eigenvalues --    1.05758   1.07065   1.07919   1.08595   1.09205
 Alpha virt. eigenvalues --    1.11361   1.11662   1.12645   1.16209   1.17147
 Alpha virt. eigenvalues --    1.19653   1.20190   1.21310   1.22458   1.24027
 Alpha virt. eigenvalues --    1.25580   1.26403   1.27271   1.29954   1.31891
 Alpha virt. eigenvalues --    1.32876   1.35091   1.37391   1.40155   1.40534
 Alpha virt. eigenvalues --    1.42211   1.44205   1.48538   1.49629   1.50964
 Alpha virt. eigenvalues --    1.53654   1.54128   1.56523   1.58192   1.61517
 Alpha virt. eigenvalues --    1.62176   1.64283   1.65510   1.68772   1.69427
 Alpha virt. eigenvalues --    1.71325   1.72853   1.76034   1.79258   1.80023
 Alpha virt. eigenvalues --    1.82804   1.83788   1.86144   1.89034   1.90978
 Alpha virt. eigenvalues --    1.93546   1.99330   2.01561   2.06736   2.08070
 Alpha virt. eigenvalues --    2.11612   2.12909   2.14493   2.17995   2.19084
 Alpha virt. eigenvalues --    2.21722   2.22930   2.24743   2.25645   2.32046
 Alpha virt. eigenvalues --    2.33805   2.36437   2.38454   2.44551   2.45995
 Alpha virt. eigenvalues --    2.48948   2.52230   2.52720   2.55920   2.59079
 Alpha virt. eigenvalues --    2.61530   2.67226   2.69940   2.73135   2.74977
 Alpha virt. eigenvalues --    2.79043   2.82681   2.91949   2.94008   2.96090
 Alpha virt. eigenvalues --    3.04567   3.07538   3.17222   3.21406   3.23371
 Alpha virt. eigenvalues --    3.28175   3.37867   3.41619   3.45805   3.50976
 Alpha virt. eigenvalues --    3.53444   3.54607   3.60204   3.61550   3.63538
 Alpha virt. eigenvalues --    3.70268   3.74052   3.78877   3.81097   3.83124
 Alpha virt. eigenvalues --    3.86339   3.89906   3.91069   3.91971   3.92630
 Alpha virt. eigenvalues --    3.98360   3.99139   4.01774   4.06624   4.08282
 Alpha virt. eigenvalues --    4.12202   4.15016   4.19742   4.22203   4.22959
 Alpha virt. eigenvalues --    4.23881   4.30282   4.31781   4.35165   4.36803
 Alpha virt. eigenvalues --    4.40038   4.43102   4.45113   4.46859   4.48368
 Alpha virt. eigenvalues --    4.50417   4.59836   4.62847   4.67151   4.71032
 Alpha virt. eigenvalues --    4.71797   4.73386   4.78069   4.80296   4.85142
 Alpha virt. eigenvalues --    4.87043   4.88741   4.96209   4.98055   5.03516
 Alpha virt. eigenvalues --    5.05244   5.05654   5.08030   5.11220   5.18815
 Alpha virt. eigenvalues --    5.19075   5.26982   5.31309   5.32903   5.37828
 Alpha virt. eigenvalues --    5.38675   5.47664   5.49844   5.54539   5.57459
 Alpha virt. eigenvalues --    5.60533   5.63926   5.67103   5.76903   5.80567
 Alpha virt. eigenvalues --    5.87873   5.92041   5.97222   6.04253   6.11511
 Alpha virt. eigenvalues --    6.15325   6.25887   6.28333   6.31702   6.42244
 Alpha virt. eigenvalues --    6.62540   6.65609   6.70366   6.71980   6.76784
 Alpha virt. eigenvalues --    6.86303   6.99375   7.01712   7.12779   7.24133
 Alpha virt. eigenvalues --    7.36819   7.41922   7.44287   7.59409   7.68570
 Alpha virt. eigenvalues --    7.74944   7.78749   7.90500   8.00019  15.59545
 Alpha virt. eigenvalues --   16.83782  17.92197  19.39508
          Condensed to atoms (all electrons):
               1          2          3          4          5          6
     1  C    5.672289  -0.125292  -0.049057  -0.004125   0.006225  -0.070961
     2  C   -0.125292   5.066334   0.285622  -0.042109  -0.066013   0.388138
     3  N   -0.049057   0.285622   6.374937   0.427320   0.421615  -0.131859
     4  H   -0.004125  -0.042109   0.427320   0.581406  -0.090248   0.004601
     5  H    0.006225  -0.066013   0.421615  -0.090248   0.602904  -0.031892
     6  O   -0.070961   0.388138  -0.131859   0.004601  -0.031892   8.576974
     7  H    0.389566  -0.003123  -0.002082  -0.000087  -0.000394   0.006243
     8  H    0.416185  -0.023986  -0.010587  -0.002140   0.002477  -0.002738
     9  H    0.347018   0.041541   0.000138   0.009144  -0.003252  -0.004971
               7          8          9
     1  C    0.389566   0.416185   0.347018
     2  C   -0.003123  -0.023986   0.041541
     3  N   -0.002082  -0.010587   0.000138
     4  H   -0.000087  -0.002140   0.009144
     5  H   -0.000394   0.002477  -0.003252
     6  O    0.006243  -0.002738  -0.004971
     7  H    0.300101   0.011374   0.005975
     8  H    0.011374   0.311934  -0.002326
     9  H    0.005975  -0.002326   0.321237
 Mulliken charges:
               1
     1  C   -0.581849
     2  C    0.478886
     3  N   -0.316047
     4  H    0.116237
     5  H    0.158578
     6  O   -0.733534
     7  H    0.292428
     8  H    0.299806
     9  H    0.285495
 Sum of Mulliken charges =  -0.00000
 Mulliken charges with hydrogens summed into heavy atoms:
               1
     1  C    0.295880
     2  C    0.478886
     3  N   -0.041232
     6  O   -0.733534
 Electronic spatial extent (au):  <R**2>=            264.9734
 Charge=             -0.0000 electrons
 Dipole moment (field-independent basis, Debye):
    X=             -0.4398    Y=             -4.1454    Z=              0.2122  Tot=              4.1741
 Quadrupole moment (field-independent basis, Debye-Ang):
   XX=            -20.4338   YY=            -27.1760   ZZ=            -24.8005
   XY=             -2.2551   XZ=             -0.0907   YZ=             -1.1259
 Traceless Quadrupole moment (field-independent basis, Debye-Ang):
   XX=              3.7030   YY=             -3.0392   ZZ=             -0.6638
   XY=             -2.2551   XZ=             -0.0907   YZ=             -1.1259
 Octapole moment (field-independent basis, Debye-Ang**2):
  XXX=             11.7276  YYY=            -12.4808  ZZZ=              0.9540  XYY=              1.0488
  XXY=             -2.0881  XXZ=             -0.3630  XZZ=             -1.2648  YZZ=              1.2215
  YYZ=              1.0440  XYZ=             -0.1743
 Hexadecapole moment (field-independent basis, Debye-Ang**3):
 XXXX=           -156.0404 YYYY=           -124.3076 ZZZZ=            -31.6460 XXXY=             -7.6050
 XXXZ=             -2.2650 YYYX=             -7.1269 YYYZ=             -2.7472 ZZZX=             -1.1613
 ZZZY=             -1.2439 XXYY=            -49.6034 XXZZ=            -33.8321 YYZZ=            -27.9821
 XXYZ=             -1.6230 YYXZ=              2.3334 ZZXY=              0.2357
 N-N= 1.226341523600D+02 E-N=-7.339586799401D+02  KE= 2.077801363929D+02
 Unable to Open any file for archive entry.
 1\1\GINC-NODE01\SP\RMP2-FC\Aug-CC-pVTZ\C2H5N1O1\BOITTIER\05-Nov-2024\0
 \\# MP2/aug-cc-pvtz SCF=(Tight,Direct)\\Molecule Density and ESP Calcu
 lation\\0,1\C,0,20.556475,21.002508,0.834727\C,0,20.725723,20.443964,2
 .193801\N,0,19.987938,19.377911,2.575697\H,0,19.154875,19.130798,2.108
 176\H,0,20.161957,18.936296,3.454052\O,0,21.514563,20.904819,3.003581\
 H,0,19.895809,21.90197,0.852842\H,0,21.613571,21.217834,0.521904\H,0,2
 0.093586,20.273293,0.144621\\Version=ES64L-G16RevC.01\State=1-A\HF=-20
 8.0560262\MP2=-208.8467997\RMSD=9.624e-09\PG=C01 [X(C2H5N1O1)]\\@
 The archive entry for this job was punched.


 I SUPPOSE A BABY LLAMA HAS A MMAMA AND A PPOPA.
     -- RICHARD AMOUR
 Job cpu time:       0 days  0 hours  7 minutes 40.2 seconds.
 Elapsed time:       0 days  0 hours  7 minutes 40.5 seconds.
 File lengths (MBytes):  RWF=     51 Int=      0 D2E=      0 Chk=      8 Scr=      1
 Normal termination of Gaussian 16 at Tue Nov  5 11:01:01 2024.
